MAPAXES
 4.5606369E+05 5.9394410E+06 4.5606369E+05 5.9265510E+06
 4.6748934E+05 5.9265510E+06 /

SPECGRID
12 19 31 1 F
/

COORD
  0.000
  9439.679
  1729.732
  0.072
  9439.688
  1768.266
  521.761
  9740.905
  1738.560
  517.099
  9738.209
  1777.708
  1045.342
  10043.195
  1747.913
  1031.648
  10035.283
  1788.032
  1569.282
  10345.695
  1744.656
  1548.253
  10333.544
  1784.118
  2089.897
  10646.277
  1744.484
  2067.234
  10633.174
  1783.464
  2605.408
  10943.907
  1753.690
  2590.685
  10935.387
  1793.151
  3118.748
  11240.283
  1766.974
  3115.609
  11238.453
  1808.334
  3632.399
  11536.840
  1777.118
  3642.132
  11542.436
  1819.878
  4149.061
  11835.137
  1797.983
  4168.236
  11846.172
  1842.839
  4667.491
  12134.451
  1850.774
  4685.608
  12144.879
  1899.776
  5190.014
  12436.125
  1903.271
  5200.911
  12442.403
  1962.543
  5714.273
  12738.802
  1920.989
  5717.197
  12740.487
  1986.381
  5975.630
  12889.709
  1931.940
  5975.616
  12889.650
  1996.486
  74.805
  9310.178
  1726.245
  74.562
  9310.598
  1764.912
  597.501
  9611.438
  1735.691
  591.080
  9609.256
  1774.736
  1121.796
  9913.650
  1745.696
  1104.552
  9906.374
  1786.311
  1647.521
  10216.354
  1740.685
  1622.218
  10205.438
  1780.386
  2167.990
  10516.196
  1740.726
  2140.943
  10505.630
  1779.915
  2682.486
  10813.131
  1749.292
  2663.603
  10807.896
  1788.822
  3194.738
  11108.822
  1762.083
  3188.989
  11111.221
  1803.716
  3707.035
  11404.790
  1770.108
  3715.809
  11416.307
  1813.096
  4222.962
  11702.537
  1791.408
  4241.764
  11721.760
  1836.711
  4741.320
  12002.281
  1848.458
  4758.109
  12019.071
  1897.253
  5264.152
  12304.975
  1903.475
  5274.733
  12315.299
  1965.286
  5788.759
  12608.703
  1915.690
  5791.227
  12611.928
  1981.337
  6050.415
  12760.123
  1925.993
  6049.937
  12760.950
  1990.826
  374.083
  8791.803
  1719.609
  372.368
  8794.792
  1758.658
  900.489
  9092.875
  1727.515
  885.729
  9093.283
  1766.993
  1432.938
  9395.194
  1732.370
  1399.329
  9391.480
  1772.110
  1957.232
  9695.552
  1738.087
  1907.098
  9690.269
  1777.765
  2484.852
  9993.234
  1731.621
  2436.438
  9993.190
  1771.409
  2990.936
  10288.708
  1740.187
  2948.730
  10298.316
  1779.580
  3495.490
  10583.486
  1750.464
  3478.720
  10610.683
  1793.858
  4006.288
  10879.391
  1757.868
  4012.776
  10920.846
  1800.529
  4517.861
  11162.043
  1773.927
  4530.227
  11213.298
  1817.982
  5033.175
  11467.504
  1848.501
  5042.328
  11506.029
  1895.655
  5559.465
  11780.904
  1919.241
  5568.349
  11812.584
  1983.652
  6087.373
  12087.665
  1916.980
  6087.517
  12099.789
  1982.108
  6350.056
  12241.143
  1920.409
  6346.679
  12246.975
  1985.649
  673.373
  8273.414
  1710.099
  670.630
  8278.188
  1748.390
  1202.049
  8574.916
  1718.510
  1182.114
  8576.524
  1758.152
  1730.245
  8876.697
  1731.703
  1682.260
  8873.607
  1771.033
  2273.271
  9177.725
  1732.346
  2191.591
  9173.136
  1771.257
  2778.548
  9474.600
  1740.246
  2698.909
  9478.077
  1777.433
  3287.466
  9770.953
  1723.501
  3223.824
  9790.111
  1766.851
  3795.079
  10054.002
  1714.804
  3777.664
  10109.459
  1760.428
  4306.670
  10336.768
  1720.334
  4306.729
  10426.548
  1772.002
  4834.580
  10622.348
  1756.594
  4815.439
  10728.775
  1812.937
  5319.303
  10987.523
  1889.108
  5316.582
  11043.644
  1932.480
  5851.075
  11248.547
  1917.462
  5860.005
  11306.092
  1981.650
  6385.281
  11564.948
  1915.116
  6384.266
  11587.629
  1982.716
  6649.771
  11722.035
  1915.769
  6642.869
  11733.949
  1981.860
  971.775
  7756.566
  1711.966
  969.041
  7761.331
  1748.872
  1500.690
  8058.479
  1712.616
  1480.397
  8058.318
  1751.554
  2037.956
  8362.132
  1715.880
  1987.680
  8354.480
  1753.537
  2578.205
  8664.481
  1723.973
  2486.038
  8650.791
  1760.772
  3060.417
  8958.342
  1725.331
  2968.115
  8951.225
  1767.115
  3611.933
  9249.647
  1650.020
  3505.068
  9274.096
  1738.519
  4085.297
  9553.590
  1683.789
  4104.284
  9594.826
  1728.833
  4624.586
  9815.716
  1692.729
  4596.469
  9893.196
  1737.081
  5196.884
  10122.419
  1724.251
  5067.228
  10209.788
  1766.687
  5634.223
  10426.531
  1802.309
  5633.581
  10539.130
  1873.282
  6153.884
  10738.789
  1905.077
  6176.077
  10822.270
  1982.055
  6684.042
  11044.749
  1898.649
  6684.810
  11066.198
  1953.388
  6949.803
  11202.377
  1890.983
  6942.786
  11214.473
  1939.325
  1269.953
  7240.109
  1702.402
  1268.254
  7243.075
  1740.114
  1795.376
  7542.374
  1711.380
  1779.002
  7539.053
  1749.205
  2330.242
  7847.715
  1713.592
  2293.340
  7835.185
  1749.192
  2866.241
  8152.777
  1716.979
  2782.843
  8123.382
  1754.498
  3328.198
  8431.927
  1709.157
  3268.667
  8410.997
  1748.299
  3879.293
  8753.019
  1596.173
  3870.822
  8741.723
  1641.907
  4325.864
  9029.886
  1610.137
  4395.097
  9042.869
  1662.967
  4915.160
  9328.160
  1697.455
  4882.419
  9375.658
  1740.350
  5470.086
  9606.911
  1699.166
  5365.833
  9697.211
  1751.150
  5906.014
  9849.414
  1707.832
  5965.303
  10005.271
  1805.486
  6439.866
  10204.553
  1824.689
  6474.009
  10261.426
  1876.705
  6981.294
  10529.217
  1852.061
  6986.621
  10550.966
  1896.721
  7247.828
  10686.181
  1852.578
  7240.502
  10698.785
  1896.296
  1567.836
  6724.164
  1681.672
  1567.870
  6724.118
  1718.884
  2090.876
  7026.427
  1689.917
  2083.328
  7020.664
  1726.983
  2615.188
  7329.197
  1715.474
  2590.048
  7310.974
  1750.623
  3135.332
  7629.156
  1721.235
  3082.381
  7590.301
  1760.000
  3659.436
  7937.377
  1650.360
  3624.951
  7899.111
  1693.101
  4122.457
  8254.269
  1591.080
  4171.380
  8220.715
  1640.143
  4687.288
  8524.141
  1655.901
  4734.598
  8512.652
  1705.690
  5280.011
  8811.149
  1667.947
  5122.521
  8839.420
  1736.501
  5748.705
  9084.523
  1678.315
  5703.595
  9161.347
  1725.740
  6225.277
  9404.361
  1729.486
  6293.767
  9481.361
  1778.386
  6738.832
  9699.717
  1764.174
  6804.249
  9766.107
  1820.941
  7279.645
  10014.508
  1789.599
  7288.226
  10037.078
  1833.034
  7546.262
  10169.272
  1798.420
  7539.766
  10180.452
  1840.521
  1865.594
  6208.438
  1672.751
  1867.442
  6205.238
  1708.551
  2385.388
  6511.467
  1667.200
  2386.514
  6503.834
  1704.626
  2909.086
  6817.996
  1680.977
  2904.359
  6801.895
  1715.575
  3424.946
  7105.730
  1722.793
  3409.494
  7073.633
  1760.456
  3954.814
  7449.390
  1624.960
  3944.524
  7403.283
  1670.249
  4410.089
  7736.861
  1608.392
  4526.442
  7674.243
  1685.256
  4977.099
  8021.302
  1647.453
  4996.727
  7985.586
  1692.926
  5557.944
  8313.342
  1650.939
  5473.636
  8303.290
  1694.948
  6022.377
  8579.804
  1651.698
  6024.781
  8626.099
  1694.897
  6518.331
  8885.324
  1693.764
  6579.567
  8939.934
  1733.568
  7032.832
  9177.488
  1696.567
  7077.930
  9222.908
  1741.837
  7578.364
  9494.526
  1731.825
  7584.393
  9515.183
  1772.029
  7845.317
  9651.287
  1749.526
  7839.151
  9661.921
  1788.769
  2163.780
  5691.971
  1674.423
  2166.644
  5686.998
  1709.870
  2681.865
  5992.303
  1681.497
  2690.023
  5984.505
  1716.984
  3198.083
  6296.843
  1680.726
  3211.433
  6281.397
  1717.486
  3721.899
  6593.128
  1715.451
  3736.135
  6568.996
  1751.466
  4231.038
  6904.592
  1673.638
  4268.897
  6859.771
  1726.533
  4755.790
  7199.401
  1656.452
  4782.146
  7158.622
  1697.959
  5303.110
  7515.514
  1640.700
  5257.827
  7461.578
  1679.432
  5856.292
  7813.104
  1624.998
  5767.127
  7776.112
  1669.868
  6327.369
  8079.951
  1619.125
  6318.221
  8098.598
  1663.891
  6834.845
  8382.121
  1664.453
  6879.823
  8433.357
  1709.563
  7337.150
  8661.172
  1666.037
  7372.582
  8703.664
  1710.837
  7877.836
  8979.829
  1708.985
  7883.414
  8999.732
  1748.087
  8143.654
  9134.548
  1726.580
  8137.384
  9145.364
  1764.966
  2462.511
  5174.554
  1678.844
  2465.307
  5169.699
  1713.775
  2977.920
  5476.306
  1679.963
  2987.791
  5469.188
  1714.421
  3494.561
  5778.740
  1682.649
  3510.771
  5766.600
  1716.187
  4014.178
  6081.530
  1696.582
  4033.784
  6061.104
  1732.658
  4541.894
  6374.151
  1708.733
  4559.806
  6342.646
  1745.890
  5068.343
  6707.401
  1647.214
  5060.041
  6653.099
  1690.758
  5613.967
  7008.555
  1630.162
  5561.344
  6949.633
  1670.906
  6144.569
  7311.617
  1594.950
  6085.384
  7261.168
  1641.569
  6625.461
  7577.294
  1597.276
  6608.814
  7558.870
  1643.739
  7092.080
  7830.078
  1602.426
  7184.149
  7909.631
  1704.555
  7642.287
  8154.762
  1681.596
  7679.255
  8192.271
  1725.968
  8174.506
  8462.662
  1710.460
  8183.833
  8481.976
  1748.750
  8442.155
  8617.547
  1721.243
  8436.288
  8627.631
  1758.529
  2761.600
  4656.515
  1682.607
  2763.258
  4653.634
  1716.958
  3279.207
  4956.633
  1690.821
  3286.773
  4952.634
  1726.455
  3796.946
  5258.088
  1691.123
  3810.461
  5249.702
  1727.174
  4312.639
  5564.979
  1677.882
  4327.260
  5549.107
  1714.840
  4838.283
  5867.303
  1692.321
  4846.523
  5841.241
  1730.237
  5370.309
  6180.535
  1659.335
  5356.438
  6133.858
  1700.921
  5893.978
  6474.356
  1656.999
  5863.858
  6419.298
  1698.627
  6450.300
  6840.992
  1565.331
  6363.512
  6686.872
  1670.590
  6926.534
  7078.672
  1581.698
  6906.386
  7019.172
  1627.146
  7384.320
  7317.846
  1609.523
  7504.073
  7398.945
  1729.195
  7949.739
  7647.788
  1708.969
  7998.947
  7693.142
  1755.318
  8472.311
  7946.116
  1729.607
  8483.649
  7965.112
  1766.065
  8740.863
  8100.191
  1725.553
  8735.066
  8110.113
  1764.002
  3060.845
  4138.207
  1686.446
  3061.212
  4137.563
  1722.106
  3577.590
  4438.044
  1686.052
  3583.169
  4437.681
  1722.232
  4094.802
  4738.928
  1685.357
  4105.926
  4736.545
  1721.040
  4613.667
  5041.614
  1678.564
  4624.580
  5035.051
  1715.445
  5138.677
  5341.836
  1694.647
  5143.050
  5330.959
  1733.287
  5665.069
  5646.526
  1679.073
  5654.722
  5626.262
  1718.832
  6186.593
  5948.054
  1671.402
  6160.890
  5907.410
  1711.863
  6726.395
  6281.470
  1607.207
  6678.606
  6204.665
  1660.553
  7242.314
  6589.173
  1573.422
  7210.089
  6521.057
  1612.542
  7698.641
  6819.356
  1619.381
  7747.158
  6843.320
  1668.586
  8252.553
  7135.033
  1706.469
  8305.705
  7191.659
  1754.621
  8770.191
  7424.815
  1718.124
  8783.371
  7454.371
  1758.985
  9040.518
  7581.192
  1711.325
  9032.595
  7594.761
  1753.129
  3359.908
  3620.214
  1690.362
  3359.319
  3621.227
  1726.044
  3878.104
  3919.595
  1694.295
  3881.175
  3922.213
  1731.032
  4396.069
  4219.066
  1689.661
  4403.684
  4222.666
  1726.114
  4915.532
  4519.403
  1687.964
  4923.525
  4521.640
  1724.417
  5437.026
  4819.443
  1686.010
  5439.663
  4820.910
  1725.378
  5960.596
  5121.233
  1695.789
  5953.276
  5118.049
  1736.520
  6492.460
  5443.040
  1665.137
  6466.450
  5404.198
  1708.894
  7012.805
  5750.525
  1644.799
  6959.174
  5658.290
  1708.596
  7560.050
  6122.483
  1569.518
  7472.484
  5918.339
  1679.744
  8022.260
  6323.799
  1618.414
  8050.710
  6320.336
  1668.023
  8557.322
  6625.367
  1692.035
  8595.989
  6676.568
  1737.076
  9067.006
  6895.560
  1686.734
  9079.875
  6937.232
  1727.231
  9341.688
  7059.592
  1688.734
  9330.977
  7077.947
  1729.147
  3658.552
  3102.946
  1691.722
  3657.757
  3104.318
  1726.888
  4177.128
  3401.728
  1685.074
  4178.617
  3405.077
  1721.566
  4695.024
  3700.295
  1678.644
  4699.885
  3706.110
  1717.830
  5214.648
  4000.693
  1682.865
  5219.896
  4005.771
  1721.373
  5736.209
  4301.386
  1686.042
  5737.149
  4304.099
  1725.256
  6259.419
  4603.699
  1702.952
  6252.553
  4601.344
  1744.403
  6785.851
  4916.718
  1680.234
  6766.221
  4890.173
  1725.608
  7305.072
  5228.146
  1656.990
  7284.362
  5179.400
  1700.936
  7819.800
  5521.312
  1639.693
  7798.208
  5444.704
  1684.812
  8334.110
  5882.168
  1602.969
  8332.698
  5715.656
  1690.613
  8833.025
  6104.875
  1636.910
  8858.393
  6103.694
  1684.281
  9363.740
  6391.959
  1676.399
  9382.095
  6410.293
  1716.956
  9634.701
  6552.047
  1684.128
  9633.714
  6553.598
  1724.465
  3957.177
  2585.713
  1678.668
  3956.577
  2586.749
  1715.062
  4476.140
  2884.873
  1679.736
  4476.930
  2887.841
  1716.318
  4994.445
  3183.123
  1675.050
  4997.482
  3188.582
  1716.304
  5514.498
  3484.198
  1696.000
  5517.429
  3488.529
  1736.452
  6035.723
  3786.115
  1705.235
  6034.858
  3785.652
  1748.032
  6558.066
  4089.463
  1725.971
  6550.602
  4080.857
  1768.971
  7083.168
  4400.174
  1705.842
  7067.831
  4375.723
  1751.371
  7595.128
  4690.178
  1707.323
  7577.761
  4648.484
  1755.312
  8130.970
  5046.271
  1632.445
  8112.051
  4983.484
  1679.755
  8636.150
  5318.341
  1649.335
  8624.137
  5222.086
  1695.388
  9150.732
  5620.337
  1672.806
  9153.281
  5525.977
  1727.260
  9666.112
  5903.554
  1682.717
  9679.803
  5856.651
  1726.480
  9926.599
  6046.356
  1686.728
  9941.299
  6020.969
  1729.067
  4255.645
  2068.750
  1674.657
  4255.325
  2069.302
  1711.702
  4774.996
  2368.352
  1681.458
  4775.372
  2370.152
  1719.592
  5293.977
  2667.214
  1688.652
  5295.638
  2670.949
  1730.129
  5813.676
  2967.449
  1713.580
  5815.122
  2970.510
  1753.530
  6334.762
  3269.746
  1733.007
  6332.809
  3267.551
  1774.685
  6855.767
  3572.221
  1747.522
  6848.190
  3560.881
  1788.856
  7377.789
  3877.239
  1737.502
  7362.209
  3850.572
  1783.599
  7902.139
  4188.498
  1729.065
  7877.898
  4140.974
  1776.391
  8415.188
  4476.967
  1696.914
  8394.883
  4432.451
  1752.319
  8946.277
  4816.308
  1647.493
  8926.017
  4752.656
  1692.946
  9454.333
  5092.693
  1698.995
  9445.656
  5024.195
  1737.265
  9967.040
  5388.456
  1693.682
  9976.857
  5340.821
  1738.728
  10224.686
  5530.043
  1695.629
  10241.152
  5501.609
  1739.526
  4554.205
  1551.627
  1669.077
  4554.079
  1551.846
  1707.470
  5073.669
  1851.307
  1677.679
  5073.858
  1852.198
  1717.861
  5593.012
  2150.778
  1703.269
  5593.800
  2152.804
  1744.447
  6112.799
  2450.871
  1732.256
  6113.196
  2452.659
  1775.651
  6633.298
  2752.287
  1750.979
  6630.706
  2749.906
  1792.073
  7156.286
  3057.170
  1732.367
  7147.504
  3045.419
  1779.756
  7680.958
  3365.781
  1724.226
  7663.667
  3339.638
  1771.817
  8204.238
  3672.760
  1745.621
  8175.084
  3626.256
  1791.315
  8707.966
  3947.269
  1760.102
  8678.645
  3899.625
  1812.272
  9254.562
  4294.914
  1675.569
  9228.617
  4247.948
  1719.583
  9757.016
  4570.793
  1713.211
  9739.104
  4516.666
  1753.521
  10268.525
  4866.066
  1700.113
  10271.912
  4835.406
  1744.561
  10525.492
  5009.038
  1702.199
  10536.390
  4990.220
  1746.275
  4852.790
  1034.465
  1680.301
  4852.754
  1034.526
  1720.853
  5372.324
  1334.312
  1692.703
  5372.476
  1334.705
  1734.355
  5891.806
  1634.039
  1719.819
  5892.231
  1634.957
  1759.906
  6411.649
  1934.241
  1749.076
  6411.539
  1934.826
  1790.217
  6932.188
  2235.202
  1744.616
  6929.740
  2233.194
  1787.027
  7455.291
  2539.316
  1721.064
  7447.422
  2530.683
  1766.850
  7979.094
  2845.221
  1732.842
  7963.128
  2825.488
  1777.810
  8499.736
  3147.333
  1774.021
  8474.164
  3113.858
  1814.415
  9016.310
  3443.435
  1776.616
  8982.538
  3398.509
  1826.951
  9555.447
  3767.118
  1709.870
  9499.273
  3696.027
  1807.175
  10056.914
  4048.477
  1729.872
  10037.566
  4012.626
  1776.169
  10569.062
  4343.314
  1713.828
  10568.443
  4325.320
  1759.274
  10825.816
  4488.871
  1712.208
  10832.009
  4478.180
  1756.753
  5151.406
  517.245
  1696.480
  5151.405
  517.247
  1736.592
  5670.951
  817.174
  1714.186
  5671.146
  817.369
  1754.361
  6190.415
  1117.008
  1732.674
  6190.895
  1117.504
  1773.517
  6710.194
  1417.119
  1749.608
  6710.333
  1417.377
  1789.856
  7230.539
  1717.732
  1737.775
  7228.872
  1716.441
  1784.108
  7752.106
  2019.524
  1729.683
  7746.164
  2014.288
  1776.412
  8273.011
  2320.914
  1760.383
  8261.084
  2309.745
  1802.917
  8796.907
  2625.290
  1785.878
  8774.376
  2603.342
  1829.951
  9319.955
  2928.520
  1769.420
  9293.000
  2902.367
  1815.107
  9851.711
  3238.270
  1729.798
  9818.031
  3207.956
  1779.500
  10352.709
  3522.675
  1755.037
  10336.286
  3504.495
  1803.016
  10868.662
  3821.408
  1730.111
  10865.806
  3812.785
  1777.680
  11125.904
  3969.109
  1724.147
  11128.491
  3964.651
  1770.763
  5450.038
  0.001
  1707.050
  5450.037
  0.000
  1747.750
  5969.546
  299.939
  1721.421
  5969.783
  300.076
  1761.660
  6488.979
  599.833
  1739.095
  6489.608
  600.197
  1779.978
  7008.615
  899.846
  1748.585
  7009.246
  900.209
  1790.802
  7528.646
  1200.086
  1738.902
  7528.297
  1199.884
  1782.502
  8049.421
  1500.755
  1739.845
  8046.225
  1498.910
  1783.748
  8571.461
  1802.154
  1765.487
  8562.744
  1797.124
  1807.836
  9094.762
  2104.281
  1780.155
  9078.389
  2094.833
  1824.609
  9616.568
  2405.544
  1761.335
  9595.100
  2393.158
  1808.418
  10137.355
  2706.221
  1743.904
  10114.817
  2693.217
  1791.666
  10651.612
  3003.128
  1756.172
  10639.106
  2995.914
  1805.623
  11167.270
  3300.844
  1740.261
  11163.957
  3298.935
  1788.636
  11425.592
  3449.974
  1737.349
  11425.648
  3450.048
  1784.694
/

ZCORN
  1729.732
  1738.560
  1738.560
  1747.913
  1747.913
  1744.656
  1744.656
  1744.484
  1744.484
  1753.690
  1753.690
  1766.974
  1766.974
  1777.118
  1777.118
  1797.983
  1797.983
  1850.774
  1850.774
  1903.271
  1903.271
  1920.989
  1920.989
  1931.940
  1726.245
  1735.691
  1735.691
  1745.696
  1745.696
  1740.685
  1740.685
  1740.726
  1740.726
  1749.292
  1749.292
  1762.083
  1762.083
  1770.108
  1770.108
  1791.408
  1791.408
  1848.458
  1848.458
  1903.475
  1903.475
  1915.690
  1915.690
  1925.993
  1726.245
  1735.691
  1735.691
  1745.696
  1745.696
  1740.685
  1740.685
  1740.726
  1740.726
  1749.292
  1749.292
  1762.083
  1762.083
  1770.108
  1770.108
  1791.408
  1791.408
  1848.458
  1848.458
  1903.475
  1903.475
  1915.690
  1915.690
  1925.993
  1719.609
  1727.515
  1727.515
  1732.370
  1732.370
  1738.087
  1738.087
  1731.621
  1731.621
  1740.187
  1740.187
  1750.464
  1750.464
  1757.868
  1757.868
  1773.927
  1808.911
  1848.501
  1848.501
  1919.241
  1919.241
  1916.980
  1916.980
  1920.409
  1719.609
  1727.515
  1727.515
  1732.370
  1732.370
  1738.087
  1738.087
  1731.621
  1731.621
  1740.187
  1740.187
  1750.464
  1750.464
  1757.868
  1757.868
  1773.927
  1828.593
  1848.501
  1848.501
  1919.241
  1919.241
  1916.980
  1916.980
  1920.409
  1710.099
  1718.510
  1718.510
  1731.703
  1731.703
  1732.346
  1732.346
  1740.246
  1740.246
  1723.501
  1723.501
  1714.804
  1714.804
  1720.334
  1720.334
  1756.594
  1836.318
  1889.108
  1889.108
  1917.462
  1917.462
  1915.116
  1915.116
  1915.769
  1710.099
  1718.510
  1718.510
  1731.703
  1731.703
  1732.346
  1732.346
  1740.246
  1740.246
  1723.501
  1723.501
  1716.108
  1714.804
  1720.334
  1720.334
  1756.594
  1756.594
  1889.108
  1889.108
  1917.462
  1917.462
  1915.116
  1915.116
  1915.769
  1711.966
  1712.616
  1712.616
  1715.880
  1715.880
  1723.973
  1723.973
  1725.331
  1725.331
  1692.010
  1709.264
  1683.789
  1683.789
  1692.729
  1692.729
  1724.251
  1724.251
  1802.309
  1802.309
  1905.077
  1905.077
  1898.649
  1898.649
  1890.983
  1711.966
  1712.616
  1712.616
  1715.880
  1715.880
  1723.973
  1723.973
  1725.331
  1725.331
  1708.088
  1650.020
  1683.789
  1683.789
  1692.729
  1692.729
  1724.251
  1724.251
  1802.309
  1802.309
  1905.077
  1905.077
  1898.649
  1898.649
  1890.983
  1702.402
  1711.380
  1711.380
  1713.592
  1713.592
  1716.979
  1716.979
  1709.157
  1709.157
  1595.644
  1595.644
  1610.137
  1680.971
  1697.455
  1697.455
  1707.937
  1711.849
  1707.832
  1751.515
  1824.689
  1824.689
  1852.061
  1852.061
  1852.578
  1702.402
  1711.380
  1711.380
  1713.592
  1713.592
  1716.979
  1716.979
  1709.157
  1709.157
  1595.644
  1595.644
  1610.137
  1680.971
  1697.455
  1697.455
  1703.550
  1699.166
  1751.515
  1751.515
  1824.689
  1824.689
  1852.061
  1852.061
  1852.578
  1681.672
  1689.917
  1689.917
  1715.474
  1715.474
  1721.235
  1721.235
  1650.360
  1650.360
  1591.080
  1591.080
  1655.901
  1655.901
  1694.512
  1694.512
  1678.315
  1678.315
  1729.486
  1729.486
  1764.174
  1764.174
  1789.599
  1789.599
  1798.420
  1681.672
  1689.917
  1689.917
  1715.474
  1715.474
  1721.235
  1721.235
  1650.360
  1650.360
  1591.080
  1638.858
  1655.901
  1655.901
  1694.512
  1667.947
  1678.315
  1678.315
  1729.486
  1729.486
  1764.174
  1764.174
  1789.599
  1789.599
  1798.420
  1672.751
  1667.200
  1667.200
  1680.977
  1680.977
  1722.793
  1722.793
  1624.960
  1624.960
  1608.392
  1638.376
  1647.453
  1647.453
  1671.014
  1650.939
  1651.698
  1651.698
  1693.764
  1693.764
  1696.567
  1696.567
  1731.825
  1731.825
  1749.526
  1672.751
  1667.200
  1667.200
  1680.977
  1680.977
  1722.793
  1722.793
  1624.960
  1624.960
  1642.448
  1642.448
  1647.453
  1647.453
  1667.389
  1650.939
  1651.698
  1651.698
  1693.764
  1693.764
  1696.567
  1696.567
  1731.825
  1731.825
  1749.526
  1674.423
  1681.497
  1681.497
  1680.726
  1680.726
  1715.451
  1715.451
  1673.638
  1679.359
  1656.452
  1656.452
  1640.700
  1640.700
  1660.624
  1624.998
  1619.125
  1619.125
  1664.453
  1664.453
  1666.037
  1666.037
  1708.985
  1708.985
  1726.580
  1674.423
  1681.497
  1681.497
  1680.726
  1680.726
  1715.451
  1715.451
  1673.638
  1693.311
  1656.452
  1656.452
  1640.700
  1640.700
  1655.364
  1624.998
  1619.125
  1619.125
  1664.453
  1664.453
  1666.037
  1666.037
  1708.985
  1708.985
  1726.580
  1678.844
  1679.963
  1679.963
  1682.649
  1682.649
  1696.582
  1696.582
  1708.733
  1708.733
  1647.214
  1647.214
  1630.162
  1630.162
  1594.950
  1594.950
  1597.618
  1597.618
  1602.426
  1655.463
  1681.596
  1681.596
  1710.460
  1710.460
  1721.243
  1678.844
  1679.963
  1679.963
  1682.649
  1682.649
  1696.582
  1696.582
  1708.733
  1708.733
  1647.214
  1647.214
  1630.162
  1630.162
  1646.329
  1594.950
  1597.618
  1597.618
  1602.426
  1655.463
  1681.596
  1681.596
  1710.460
  1710.460
  1721.243
  1682.607
  1690.821
  1690.821
  1691.123
  1691.123
  1677.882
  1677.882
  1692.321
  1692.321
  1659.335
  1659.335
  1656.999
  1656.999
  1658.043
  1565.331
  1581.698
  1581.698
  1609.523
  1674.708
  1708.969
  1708.969
  1729.607
  1729.607
  1725.553
  1682.607
  1690.821
  1690.821
  1691.123
  1691.123
  1677.882
  1677.882
  1692.321
  1692.321
  1659.335
  1659.335
  1656.999
  1656.999
  1617.242
  1617.242
  1581.698
  1581.698
  1609.523
  1698.650
  1708.969
  1708.969
  1729.607
  1729.607
  1725.553
  1686.446
  1686.052
  1686.052
  1685.357
  1685.357
  1678.564
  1678.564
  1692.986
  1692.986
  1679.073
  1679.073
  1671.402
  1671.402
  1605.730
  1605.730
  1573.422
  1573.422
  1619.381
  1681.810
  1706.469
  1706.469
  1718.124
  1718.124
  1711.325
  1686.446
  1686.052
  1686.052
  1685.357
  1685.357
  1678.564
  1678.564
  1692.986
  1692.986
  1679.073
  1679.073
  1671.402
  1671.402
  1664.561
  1605.730
  1602.591
  1573.422
  1619.381
  1679.301
  1706.469
  1706.469
  1718.124
  1718.124
  1711.325
  1690.362
  1694.295
  1694.295
  1689.661
  1689.661
  1687.964
  1687.964
  1686.010
  1686.010
  1695.789
  1695.789
  1665.137
  1665.137
  1663.354
  1644.799
  1635.694
  1569.518
  1618.414
  1675.818
  1692.035
  1692.035
  1686.734
  1686.734
  1688.734
  1690.362
  1694.295
  1694.295
  1689.661
  1689.661
  1687.964
  1687.964
  1686.010
  1686.010
  1695.789
  1695.789
  1687.158
  1665.137
  1662.330
  1662.330
  1659.030
  1642.878
  1618.414
  1618.414
  1692.035
  1692.035
  1686.734
  1686.734
  1688.734
  1691.722
  1685.074
  1685.074
  1678.644
  1678.644
  1682.865
  1682.865
  1686.042
  1686.042
  1702.952
  1702.952
  1680.234
  1680.234
  1656.990
  1656.990
  1639.693
  1639.693
  1635.512
  1602.969
  1636.910
  1663.812
  1676.399
  1676.399
  1684.128
  1691.722
  1685.074
  1685.074
  1678.644
  1678.644
  1682.865
  1682.865
  1686.042
  1686.042
  1702.952
  1702.952
  1680.234
  1680.234
  1673.552
  1656.990
  1639.693
  1639.693
  1641.398
  1643.427
  1636.910
  1636.910
  1676.399
  1676.399
  1684.128
  1678.668
  1679.736
  1679.736
  1675.050
  1675.050
  1696.000
  1696.000
  1705.235
  1705.235
  1725.971
  1725.971
  1705.842
  1705.842
  1707.323
  1707.323
  1632.445
  1632.445
  1649.335
  1649.335
  1665.206
  1672.806
  1682.717
  1682.717
  1686.728
  1678.668
  1679.736
  1679.736
  1675.050
  1675.050
  1696.000
  1696.000
  1705.235
  1705.235
  1725.971
  1725.971
  1705.842
  1705.842
  1707.323
  1707.323
  1709.116
  1632.445
  1649.335
  1649.335
  1679.075
  1679.075
  1682.717
  1682.717
  1686.728
  1674.657
  1681.458
  1681.458
  1688.652
  1688.652
  1713.580
  1713.580
  1733.007
  1733.007
  1747.522
  1747.522
  1737.502
  1737.502
  1729.065
  1729.065
  1696.914
  1696.914
  1646.008
  1646.008
  1698.995
  1698.995
  1693.682
  1693.682
  1695.629
  1674.657
  1681.458
  1681.458
  1688.652
  1688.652
  1713.580
  1713.580
  1733.007
  1733.007
  1747.522
  1747.522
  1737.502
  1737.502
  1729.065
  1729.065
  1696.914
  1696.914
  1646.008
  1646.008
  1698.995
  1698.995
  1693.682
  1693.682
  1695.629
  1669.077
  1677.679
  1677.679
  1703.269
  1703.269
  1732.256
  1732.256
  1750.979
  1750.979
  1732.367
  1732.367
  1724.226
  1724.226
  1745.621
  1745.621
  1760.102
  1760.102
  1675.569
  1675.569
  1713.211
  1713.211
  1700.113
  1700.113
  1702.199
  1669.077
  1677.679
  1677.679
  1703.269
  1703.269
  1732.256
  1732.256
  1750.979
  1750.979
  1732.367
  1732.367
  1724.226
  1724.226
  1745.621
  1745.621
  1760.102
  1760.102
  1747.397
  1675.569
  1713.211
  1713.211
  1700.113
  1700.113
  1702.199
  1680.301
  1692.703
  1692.703
  1719.819
  1719.819
  1749.076
  1749.076
  1744.616
  1744.616
  1721.064
  1721.064
  1732.842
  1732.842
  1774.021
  1774.021
  1776.616
  1776.616
  1752.320
  1709.870
  1729.872
  1729.872
  1713.828
  1713.828
  1712.208
  1680.301
  1692.703
  1692.703
  1719.819
  1719.819
  1749.076
  1749.076
  1744.616
  1744.616
  1721.064
  1721.064
  1732.842
  1732.842
  1774.021
  1774.021
  1776.616
  1776.616
  1752.320
  1709.870
  1729.872
  1729.872
  1713.828
  1713.828
  1712.208
  1696.480
  1714.186
  1714.186
  1732.674
  1732.674
  1749.608
  1749.608
  1737.775
  1737.775
  1729.683
  1729.683
  1760.383
  1760.383
  1785.878
  1785.878
  1769.420
  1769.420
  1729.798
  1729.798
  1755.037
  1755.037
  1730.111
  1730.111
  1724.147
  1696.480
  1714.186
  1714.186
  1732.674
  1732.674
  1749.608
  1749.608
  1737.775
  1737.775
  1729.683
  1729.683
  1760.383
  1760.383
  1785.878
  1785.878
  1769.420
  1769.420
  1729.798
  1729.798
  1755.037
  1755.037
  1730.111
  1730.111
  1724.147
  1707.050
  1721.421
  1721.421
  1739.095
  1739.095
  1748.585
  1748.585
  1738.902
  1738.902
  1739.845
  1739.845
  1765.487
  1765.487
  1780.155
  1780.155
  1761.335
  1761.335
  1743.904
  1743.904
  1756.172
  1756.172
  1740.261
  1740.261
  1737.349
  1731.343
  1740.244
  1740.244
  1749.710
  1749.710
  1746.481
  1746.481
  1746.330
  1746.330
  1755.596
  1755.596
  1768.999
  1768.999
  1779.231
  1779.231
  1800.214
  1800.214
  1853.217
  1853.217
  1906.269
  1906.269
  1924.365
  1924.365
  1935.306
  1727.859
  1737.366
  1737.366
  1747.517
  1747.517
  1742.521
  1742.521
  1742.592
  1742.592
  1751.212
  1751.212
  1764.135
  1764.135
  1772.242
  1772.242
  1793.676
  1793.676
  1850.904
  1850.904
  1906.623
  1906.623
  1919.094
  1919.094
  1929.371
  1727.859
  1737.366
  1737.366
  1747.517
  1747.517
  1742.521
  1742.521
  1742.592
  1742.592
  1751.212
  1751.212
  1764.135
  1764.135
  1772.242
  1772.242
  1793.676
  1793.676
  1850.904
  1850.904
  1906.623
  1906.623
  1919.094
  1919.094
  1929.371
  1721.233
  1729.211
  1729.211
  1734.145
  1734.145
  1739.890
  1739.890
  1733.507
  1733.507
  1742.127
  1742.127
  1752.565
  1752.565
  1759.947
  1759.947
  1776.083
  1811.206
  1850.833
  1850.833
  1922.467
  1922.467
  1920.331
  1920.331
  1923.779
  1721.233
  1729.211
  1729.211
  1734.145
  1734.145
  1739.890
  1739.890
  1733.507
  1733.507
  1742.127
  1742.127
  1752.565
  1752.565
  1759.947
  1759.947
  1776.083
  1830.794
  1850.833
  1850.833
  1922.467
  1922.467
  1920.331
  1920.331
  1923.779
  1711.688
  1720.194
  1720.194
  1733.451
  1733.451
  1734.109
  1734.109
  1742.016
  1742.016
  1725.591
  1725.591
  1716.986
  1716.986
  1722.825
  1722.825
  1759.205
  1839.133
  1891.407
  1891.407
  1920.668
  1920.668
  1918.562
  1918.562
  1919.145
  1711.688
  1720.194
  1720.194
  1733.451
  1733.451
  1734.109
  1734.109
  1742.016
  1742.016
  1725.591
  1725.591
  1718.296
  1716.986
  1722.825
  1722.825
  1759.205
  1759.205
  1891.407
  1891.407
  1920.668
  1920.668
  1918.562
  1918.562
  1919.145
  1713.490
  1714.254
  1714.254
  1717.509
  1717.509
  1725.602
  1725.602
  1727.330
  1727.330
  1694.209
  1711.466
  1685.912
  1685.912
  1694.796
  1694.796
  1726.300
  1726.300
  1805.801
  1805.801
  1908.886
  1908.886
  1901.372
  1901.372
  1893.495
  1713.490
  1714.254
  1714.254
  1717.509
  1717.509
  1725.602
  1725.602
  1727.330
  1727.330
  1710.192
  1652.159
  1685.912
  1685.912
  1694.796
  1694.796
  1726.300
  1726.300
  1805.801
  1805.801
  1908.886
  1908.886
  1901.372
  1901.372
  1893.495
  1703.923
  1712.934
  1712.934
  1715.094
  1715.094
  1718.591
  1718.591
  1710.960
  1710.960
  1597.643
  1597.643
  1612.655
  1683.374
  1699.397
  1699.397
  1709.964
  1713.849
  1710.053
  1754.051